ITEM: TIMESTEP
0
ITEM: NUMBER OF ATOMS
1800
ITEM: BOX BOUNDS pp pp pp
0.0	271.44176165949057
0.0	271.44176165949057
0.0	271.44176165949057
ITEM: ATOMS id type x y z vx vy vz angmomx angmomy angmomz  c_orient[1] c_orient[2] c_orient[3] c_orient[4] c_shape[1] c_shape[2] c_shape[3]
1	1	148.2454077935294	135.09473585942456	215.66463869261085	0.0	0.0	0.0	0.0	0.0	0.0	-0.4254950861154265	0.8412223855125793	0.0	-0.3336147925439622	1.0	1.0	1.0
2	1	147.68411933027718	134.81083294965882	214.88723635221916	0.0	0.0	0.0	0.0	0.0	0.0	0.8299934174597617	0.3695983381273474	-0.396311395182136	-0.13208055676653277	1.0	1.0	1.0
3	2	148.09678802328176	135.5290513846155	214.32699816224792	0.0	0.0	0.0	0.0	0.0	0.0	-0.23546681269003913	0.8512781420353845	0.3295867748604553	0.3335467925965734	1.0	1.0	1.0
4	2	148.50945671628634	136.2472698195722	213.76675997227667	0.0	0.0	0.0	0.0	0.0	0.0	-0.23546681269003913	0.8512781420353845	0.3295867748604553	0.3335467925965734	1.0	1.0	1.0
5	2	148.9221254092909	136.9654882545289	213.20652178230543	0.0	0.0	0.0	0.0	0.0	0.0	-0.23546681269003913	0.8512781420353845	0.3295867748604553	0.3335467925965734	1.0	1.0	1.0
6	2	149.3347941022955	137.6837066894856	212.64628359233419	0.0	0.0	0.0	0.0	0.0	0.0	-0.23546681269003913	0.8512781420353845	0.3295867748604553	0.3335467925965734	1.0	1.0	1.0
7	2	149.74746279530007	138.4019251244423	212.08604540236294	0.0	0.0	0.0	0.0	0.0	0.0	-0.23546681269003913	0.8512781420353845	0.3295867748604553	0.3335467925965734	1.0	1.0	1.0
8	2	150.16013148830464	139.120143559399	211.5258072123917	0.0	0.0	0.0	0.0	0.0	0.0	-0.23546681269003913	0.8512781420353845	0.3295867748604553	0.3335467925965734	1.0	1.0	1.0
9	3	151.81080626032298	141.99301729922576	209.28485445250672	0.0	0.0	0.0	0.0	0.0	0.0	0.7684447269066145	-0.43544436691159616	0.0028001553948280625	-0.46890624238129186	1.0	1.0	3.0
10	1	146.92861412318655	134.7371328689596	214.2362523430731	0.0	0.0	0.0	0.0	0.0	0.0	-0.2941855268496737	0.878001320438998	-0.07101405868163847	-0.3708443886175395	1.0	1.0	1.0
11	1	146.31919301395334	134.3942378906858	213.5213894572722	0.0	0.0	0.0	0.0	0.0	0.0	0.48252024136317917	0.7070218437654986	-0.4531876059814505	-0.24882789815062054	1.0	1.0	1.0
12	2	146.72971080150685	133.4864017503517	213.60688032465265	0.0	0.0	0.0	0.0	0.0	0.0	0.6721769536123041	-0.07370691515900869	0.37490538364903625	0.6341856092668726	1.0	1.0	1.0
13	2	147.14022858906037	132.5785656100176	213.6923711920331	0.0	0.0	0.0	0.0	0.0	0.0	0.6721769536123041	-0.07370691515900869	0.37490538364903625	0.6341856092668726	1.0	1.0	1.0
14	2	147.5507463766139	131.6707294696835	213.77786205941356	0.0	0.0	0.0	0.0	0.0	0.0	0.6721769536123041	-0.07370691515900869	0.37490538364903625	0.6341856092668726	1.0	1.0	1.0
15	2	147.9612641641674	130.7628933293494	213.86335292679402	0.0	0.0	0.0	0.0	0.0	0.0	0.6721769536123041	-0.07370691515900869	0.37490538364903625	0.6341856092668726	1.0	1.0	1.0
16	2	148.37178195172092	129.8550571890153	213.94884379417448	0.0	0.0	0.0	0.0	0.0	0.0	0.6721769536123041	-0.07370691515900869	0.37490538364903625	0.6341856092668726	1.0	1.0	1.0
17	2	148.78229973927444	128.9472210486812	214.03433466155494	0.0	0.0	0.0	0.0	0.0	0.0	0.6721769536123041	-0.07370691515900869	0.37490538364903625	0.6341856092668726	1.0	1.0	1.0
18	3	150.42437088948856	125.31587648734484	214.37629813107674	0.0	0.0	0.0	0.0	0.0	0.0	0.527419541585852	0.423182222527299	-0.18333880576194994	0.7135350839251055	1.0	1.0	3.0
19	1	145.5299951092499	133.9935398121275	213.0559781154987	0.0	0.0	0.0	0.0	0.0	0.0	0.8044948307406926	-0.4587390412539857	-0.21838238042772345	0.3076616571163842	1.0	1.0	1.0
20	1	144.89634728965964	133.69887643424136	212.34067123418046	0.0	0.0	0.0	0.0	0.0	0.0	0.15814509137986937	0.855252727010996	-0.3699718667813154	-0.3265788125446232	1.0	1.0	1.0
21	2	144.15967447112084	134.21103442143016	212.78226760484586	0.0	0.0	0.0	0.0	0.0	0.0	-0.40197589906153514	0.34295362841203625	0.8448568988261738	-0.08375563168235278	1.0	1.0	1.0
22	2	143.42300165258203	134.72319240861896	213.22386397551125	0.0	0.0	0.0	0.0	0.0	0.0	-0.40197589906153514	0.34295362841203625	0.8448568988261738	-0.08375563168235278	1.0	1.0	1.0
23	2	142.68632883404322	135.23535039580776	213.66546034617664	0.0	0.0	0.0	0.0	0.0	0.0	-0.40197589906153514	0.34295362841203625	0.8448568988261738	-0.08375563168235278	1.0	1.0	1.0
24	2	141.94965601550442	135.74750838299656	214.10705671684204	0.0	0.0	0.0	0.0	0.0	0.0	-0.40197589906153514	0.34295362841203625	0.8448568988261738	-0.08375563168235278	1.0	1.0	1.0
25	2	141.2129831969656	136.25966637018536	214.54865308750743	0.0	0.0	0.0	0.0	0.0	0.0	-0.40197589906153514	0.34295362841203625	0.8448568988261738	-0.08375563168235278	1.0	1.0	1.0
26	2	140.4763103784268	136.77182435737416	214.99024945817283	0.0	0.0	0.0	0.0	0.0	0.0	-0.40197589906153514	0.34295362841203625	0.8448568988261738	-0.08375563168235278	1.0	1.0	1.0
27	3	137.52961910427163	138.82045630612933	216.75663494083435	0.0	0.0	0.0	0.0	0.0	0.0	-0.5267447203826525	-0.0417350478172888	0.6566282174173792	0.5381798671670699	1.0	1.0	3.0
28	1	144.2207139802738	133.1693312105824	211.82773704020588	0.0	0.0	0.0	0.0	0.0	0.0	0.6756453708871134	-0.6240842900377062	0.04565943494144303	0.3897914156671175	1.0	1.0	1.0
29	1	143.79588775416602	132.58561900729046	211.13578130365977	0.0	0.0	0.0	0.0	0.0	0.0	0.018741909089837444	0.8553345683895065	-0.4695912621160115	-0.21802652018939414	1.0	1.0	1.0
30	2	144.70011410884157	132.34879110426516	210.78041213806037	0.0	0.0	0.0	0.0	0.0	0.0	0.7816538721718537	0.2582669295872945	0.4763478707378684	0.30888205393612284	1.0	1.0	1.0
31	2	145.60434046351713	132.11196320123986	210.42504297246097	0.0	0.0	0.0	0.0	0.0	0.0	0.7816538721718537	0.2582669295872945	0.4763478707378684	0.30888205393612284	1.0	1.0	1.0
32	2	146.5085668181927	131.87513529821456	210.06967380686157	0.0	0.0	0.0	0.0	0.0	0.0	0.7816538721718537	0.2582669295872945	0.4763478707378684	0.30888205393612284	1.0	1.0	1.0
33	2	147.41279317286825	131.63830739518926	209.71430464126217	0.0	0.0	0.0	0.0	0.0	0.0	0.7816538721718537	0.2582669295872945	0.4763478707378684	0.30888205393612284	1.0	1.0	1.0
34	2	148.3170195275438	131.40147949216396	209.35893547566278	0.0	0.0	0.0	0.0	0.0	0.0	0.7816538721718537	0.2582669295872945	0.4763478707378684	0.30888205393612284	1.0	1.0	1.0
35	2	149.22124588221936	131.16465158913866	209.00356631006338	0.0	0.0	0.0	0.0	0.0	0.0	0.7816538721718537	0.2582669295872945	0.4763478707378684	0.30888205393612284	1.0	1.0	1.0
36	3	152.83815130092154	130.21733997703745	207.58208964766575	0.0	0.0	0.0	0.0	0.0	0.0	0.370090456286036	0.735335050820845	0.11841621467745829	0.555241404527581	1.0	1.0	3.0
37	1	143.40531444159078	131.79047619472863	210.67188433758298	0.0	0.0	0.0	0.0	0.0	0.0	0.443852316836992	0.6426445062015783	-0.6240057461801729	-0.024899562676675428	1.0	1.0	1.0
38	1	142.81937851494547	131.01055192265136	210.4518906565577	0.0	0.0	0.0	0.0	0.0	0.0	0.7164185711158738	-0.46112136594510506	0.07032892789411839	0.51881148669866	1.0	1.0	1.0
39	2	143.38422037048585	130.4228150137259	211.03113067944673	0.0	0.0	0.0	0.0	0.0	0.0	0.07651170474500871	-0.4522454506045364	0.7344290647946508	-0.5002339055175762	1.0	1.0	1.0
40	2	143.94906222602623	129.83507810480046	211.61037070233576	0.0	0.0	0.0	0.0	0.0	0.0	0.07651170474500871	-0.4522454506045364	0.7344290647946508	-0.5002339055175762	1.0	1.0	1.0
41	2	144.5139040815666	129.247341195875	212.18961072522478	0.0	0.0	0.0	0.0	0.0	0.0	0.07651170474500871	-0.4522454506045364	0.7344290647946508	-0.5002339055175762	1.0	1.0	1.0
42	2	145.078745937107	128.65960428694956	212.7688507481138	0.0	0.0	0.0	0.0	0.0	0.0	0.07651170474500871	-0.4522454506045364	0.7344290647946508	-0.5002339055175762	1.0	1.0	1.0
43	2	145.64358779264737	128.0718673780241	213.34809077100283	0.0	0.0	0.0	0.0	0.0	0.0	0.07651170474500871	-0.4522454506045364	0.7344290647946508	-0.5002339055175762	1.0	1.0	1.0
44	2	146.20842964818775	127.48413046909866	213.92733079389185	0.0	0.0	0.0	0.0	0.0	0.0	0.07651170474500871	-0.4522454506045364	0.7344290647946508	-0.5002339055175762	1.0	1.0	1.0
45	3	148.46779707034923	125.13318283339689	216.24429088544795	0.0	0.0	0.0	0.0	0.0	0.0	0.37388777014857244	-0.265683879617895	0.8730385587877003	0.16560098524588301	1.0	1.0	3.0
46	1	142.4416782921765	130.20231921210106	210.00011369021612	0.0	0.0	0.0	0.0	0.0	0.0	0.6789830468503754	0.4668441179642621	-0.5546157193446902	0.11593099442221157	1.0	1.0	1.0
47	1	141.79677235594448	129.52705067985352	209.64219087344003	0.0	0.0	0.0	0.0	0.0	0.0	0.5102232671151005	0.5403015469161251	-0.6576551551716971	-0.1234348126361715	1.0	1.0	1.0
48	2	142.2456444853922	128.81334675714808	210.17990875683236	0.0	0.0	0.0	0.0	0.0	0.0	0.4760650529720778	0.06710531754285398	0.3586532979799568	0.8001417084143697	1.0	1.0	1.0
49	2	142.69451661483993	128.09964283444265	210.7176266402247	0.0	0.0	0.0	0.0	0.0	0.0	0.4760650529720778	0.06710531754285398	0.3586532979799568	0.8001417084143697	1.0	1.0	1.0
50	2	143.14338874428765	127.38593891173721	211.25534452361703	0.0	0.0	0.0	0.0	0.0	0.0	0.4760650529720778	0.06710531754285398	0.3586532979799568	0.8001417084143697	1.0	1.0	1.0
51	2	143.59226087373537	126.67223498903178	211.79306240700936	0.0	0.0	0.0	0.0	0.0	0.0	0.4760650529720778	0.06710531754285398	0.3586532979799568	0.8001417084143697	1.0	1.0	1.0
52	2	144.0411330031831	125.95853106632634	212.3307802904017	0.0	0.0	0.0	0.0	0.0	0.0	0.4760650529720778	0.06710531754285398	0.3586532979799568	0.8001417084143697	1.0	1.0	1.0
53	2	144.4900051326308	125.24482714362091	212.86849817379402	0.0	0.0	0.0	0.0	0.0	0.0	0.4760650529720778	0.06710531754285398	0.3586532979799568	0.8001417084143697	1.0	1.0	1.0
54	3	146.28549365042176	122.39001145279916	215.01936970736335	0.0	0.0	0.0	0.0	0.0	0.0	0.28917820215426054	0.3840794523307178	-0.31217944883344306	0.8193918070265368	1.0	1.0	3.0
55	1	140.99228639170965	128.9423451112582	209.5376837856289	0.0	0.0	0.0	0.0	0.0	0.0	-0.26157784264594974	0.6742485849556998	-0.3715128760945001	-0.582189024989238	1.0	1.0	1.0
56	1	140.40156521244617	128.13678555092145	209.49161554147275	0.0	0.0	0.0	0.0	0.0	0.0	0.7754729669349125	0.05414715235654361	-0.5199343879507106	0.3540875536801048	1.0	1.0	1.0
57	2	140.85503784868217	127.85256026569219	208.64687975116817	0.0	0.0	0.0	0.0	0.0	0.0	-0.359643520522768	0.8905191931105626	-0.22561310362602277	0.16349566452947856	1.0	1.0	1.0
58	2	141.30851048491817	127.56833498046294	207.8021439608636	0.0	0.0	0.0	0.0	0.0	0.0	-0.359643520522768	0.8905191931105626	-0.22561310362602277	0.16349566452947856	1.0	1.0	1.0
59	2	141.76198312115417	127.28410969523368	206.957408170559	0.0	0.0	0.0	0.0	0.0	0.0	-0.359643520522768	0.8905191931105626	-0.22561310362602277	0.16349566452947856	1.0	1.0	1.0
60	2	142.21545575739017	126.99988441000443	206.11267238025442	0.0	0.0	0.0	0.0	0.0	0.0	-0.359643520522768	0.8905191931105626	-0.22561310362602277	0.16349566452947856	1.0	1.0	1.0
61	2	142.66892839362617	126.71565912477517	205.26793658994984	0.0	0.0	0.0	0.0	0.0	0.0	-0.359643520522768	0.8905191931105626	-0.22561310362602277	0.16349566452947856	1.0	1.0	1.0
62	2	143.12240102986217	126.43143383954592	204.42320079964526	0.0	0.0	0.0	0.0	0.0	0.0	-0.359643520522768	0.8905191931105626	-0.22561310362602277	0.16349566452947856	1.0	1.0	1.0
63	3	144.93629157480615	125.29453269862893	201.04425763842687	0.0	0.0	0.0	0.0	0.0	0.0	0.8839985323967039	-0.3753857880537992	0.2751414485818989	0.04392366241510866	1.0	1.0	3.0
64	1	139.63352075300827	127.53130896626783	209.28303506836244	0.0	0.0	0.0	0.0	0.0	0.0	0.7774703284851913	0.11549920712267871	-0.6060129746527803	0.1222624064528837	1.0	1.0	1.0
65	1	138.71944896208154	127.2012101434983	209.04743471132076	0.0	0.0	0.0	0.0	0.0	0.0	-0.4919698818120933	0.6854234851647086	0.009801316960496805	-0.536716140581126	1.0	1.0	1.0
66	2	138.65925180174054	127.88614661549703	208.32132292157155	0.0	0.0	0.0	0.0	0.0	0.0	0.8882694383349307	0.27209060953064057	0.07699007975013213	-0.36196219795091805	1.0	1.0	1.0
67	2	138.59905464139953	128.57108308749577	207.59521113182234	0.0	0.0	0.0	0.0	0.0	0.0	0.8882694383349307	0.27209060953064057	0.07699007975013213	-0.36196219795091805	1.0	1.0	1.0
68	2	138.53885748105853	129.2560195594945	206.86909934207313	0.0	0.0	0.0	0.0	0.0	0.0	0.8882694383349307	0.27209060953064057	0.07699007975013213	-0.36196219795091805	1.0	1.0	1.0
69	2	138.47866032071752	129.94095603149322	206.14298755232392	0.0	0.0	0.0	0.0	0.0	0.0	0.8882694383349307	0.27209060953064057	0.07699007975013213	-0.36196219795091805	1.0	1.0	1.0
70	2	138.41846316037652	130.62589250349194	205.4168757625747	0.0	0.0	0.0	0.0	0.0	0.0	0.8882694383349307	0.27209060953064057	0.07699007975013213	-0.36196219795091805	1.0	1.0	1.0
71	2	138.3582660000355	131.31082897549067	204.6907639728255	0.0	0.0	0.0	0.0	0.0	0.0	0.8882694383349307	0.27209060953064057	0.07699007975013213	-0.36196219795091805	1.0	1.0	1.0
72	3	138.1174773586715	134.0505748634856	201.78631681382862	0.0	0.0	0.0	0.0	0.0	0.0	0.4357042282710983	0.8204984584636923	0.3103861321796932	-0.2015057172288701	1.0	1.0	3.0
73	1	137.9740493613457	126.68654989666216	208.62375527406968	0.0	0.0	0.0	0.0	0.0	0.0	0.8492101538701075	0.0900543631076297	-0.5144090668283674	0.07820254608359045	1.0	1.0	1.0
74	1	137.1144515167206	126.46107954249676	208.16521992656806	0.0	0.0	0.0	0.0	0.0	0.0	0.7491105237260884	0.27773908021821314	-0.5621356340823874	-0.21377080122682549	1.0	1.0	1.0
75	2	137.32818058114927	127.11753044797157	207.44176149948345	0.0	0.0	0.0	0.0	0.0	0.0	-0.1178395387993634	0.9207839359143156	0.3361054174525141	0.15907210571550956	1.0	1.0	1.0
76	2	137.54190964557793	127.77398135344639	206.71830307239884	0.0	0.0	0.0	0.0	0.0	0.0	-0.1178395387993634	0.9207839359143156	0.3361054174525141	0.15907210571550956	1.0	1.0	1.0
77	2	137.7556387100066	128.4304322589212	205.99484464531423	0.0	0.0	0.0	0.0	0.0	0.0	-0.1178395387993634	0.9207839359143156	0.3361054174525141	0.15907210571550956	1.0	1.0	1.0
78	2	137.96936777443526	129.08688316439603	205.27138621822962	0.0	0.0	0.0	0.0	0.0	0.0	-0.1178395387993634	0.9207839359143156	0.3361054174525141	0.15907210571550956	1.0	1.0	1.0
79	2	138.18309683886392	129.74333406987085	204.547927791145	0.0	0.0	0.0	0.0	0.0	0.0	-0.1178395387993634	0.9207839359143156	0.3361054174525141	0.15907210571550956	1.0	1.0	1.0
80	2	138.39682590329258	130.39978497534568	203.8244693640604	0.0	0.0	0.0	0.0	0.0	0.0	-0.1178395387993634	0.9207839359143156	0.3361054174525141	0.15907210571550956	1.0	1.0	1.0
81	3	139.25174216100726	133.02558859724496	200.93063565572197	0.0	0.0	0.0	0.0	0.0	0.0	0.734417702069577	-0.5677674281157268	-0.12518145522514781	-0.3501433845232683	1.0	1.0	3.0
82	1	136.153503066795	126.46910138828966	207.8886087796928	0.0	0.0	0.0	0.0	0.0	0.0	0.07363025238227311	0.7524987908247717	-0.2421285264440663	-0.6080279043131197	1.0	1.0	1.0
83	1	135.20276657220626	126.19423703764305	207.74525709117555	0.0	0.0	0.0	0.0	0.0	0.0	0.7522039941344519	0.00877481402780178	-0.6581376452119827	-0.031096523950136908	1.0	1.0	1.0
84	2	135.06921088701904	126.14010455123041	208.73481888958378	0.0	0.0	0.0	0.0	0.0	0.0	0.022887679863674303	-0.06852193011244925	0.06250910930451949	0.9954262958441868	1.0	1.0	1.0
85	2	134.93565520183182	126.08597206481777	209.724380687992	0.0	0.0	0.0	0.0	0.0	0.0	0.022887679863674303	-0.06852193011244925	0.06250910930451949	0.9954262958441868	1.0	1.0	1.0
86	2	134.8020995166446	126.03183957840513	210.71394248640024	0.0	0.0	0.0	0.0	0.0	0.0	0.022887679863674303	-0.06852193011244925	0.06250910930451949	0.9954262958441868	1.0	1.0	1.0
87	2	134.66854383145738	125.97770709199249	211.70350428480847	0.0	0.0	0.0	0.0	0.0	0.0	0.022887679863674303	-0.06852193011244925	0.06250910930451949	0.9954262958441868	1.0	1.0	1.0
88	2	134.53498814627017	125.92357460557984	212.6930660832167	0.0	0.0	0.0	0.0	0.0	0.0	0.022887679863674303	-0.06852193011244925	0.06250910930451949	0.9954262958441868	1.0	1.0	1.0
89	2	134.40143246108295	125.8694421191672	213.68262788162494	0.0	0.0	0.0	0.0	0.0	0.0	0.022887679863674303	-0.06852193011244925	0.06250910930451949	0.9954262958441868	1.0	1.0	1.0
90	3	133.8672097203341	125.65291217351664	217.64087507525792	0.0	0.0	0.0	0.0	0.0	0.0	0.06463635507973442	-0.03226828780527266	-0.659672068887674	0.7480732990379877	1.0	1.0	3.0
91	1	134.2121133089397	126.22946882579816	207.61348139886945	0.0	0.0	0.0	0.0	0.0	0.0	0.7453440114231247	-0.24458706006792724	-0.6200528144248623	-0.013190223910935094	1.0	1.0	1.0
92	1	133.29426032112048	126.5524451245349	207.38276034823548	0.0	0.0	0.0	0.0	0.0	0.0	-0.47407952136275017	0.7310752392593746	0.3768396180341481	-0.3142761592074577	1.0	1.0	1.0
93	2	132.94130211476391	125.62240610993246	207.4849754933114	0.0	0.0	0.0	0.0	0.0	0.0	-0.24660482027054323	-0.6229594610256538	0.7422912011224457	-0.010552027016507256	1.0	1.0	1.0
94	2	132.58834390840735	124.69236709533001	207.5871906383873	0.0	0.0	0.0	0.0	0.0	0.0	-0.24660482027054323	-0.6229594610256538	0.7422912011224457	-0.010552027016507256	1.0	1.0	1.0
95	2	132.2353857020508	123.76232808072757	207.68940578346323	0.0	0.0	0.0	0.0	0.0	0.0	-0.24660482027054323	-0.6229594610256538	0.7422912011224457	-0.010552027016507256	1.0	1.0	1.0
96	2	131.88242749569423	122.83228906612513	207.79162092853915	0.0	0.0	0.0	0.0	0.0	0.0	-0.24660482027054323	-0.6229594610256538	0.7422912011224457	-0.010552027016507256	1.0	1.0	1.0
97	2	131.52946928933767	121.90225005152269	207.89383607361506	0.0	0.0	0.0	0.0	0.0	0.0	-0.24660482027054323	-0.6229594610256538	0.7422912011224457	-0.010552027016507256	1.0	1.0	1.0
98	2	131.1765110829811	120.97221103692024	207.99605121869098	0.0	0.0	0.0	0.0	0.0	0.0	-0.24660482027054323	-0.6229594610256538	0.7422912011224457	-0.010552027016507256	1.0	1.0	1.0
99	3	129.76467825755492	117.25205497851049	208.40491179899465	0.0	0.0	0.0	0.0	0.0	0.0	0.2661229186089665	-0.6148747999821481	0.5323405517874242	0.517417732070152	1.0	1.0	3.0
100	1	132.47743739305196	126.80545757010276	206.8643155521681	0.0	0.0	0.0	0.0	0.0	0.0	0.43522827284268234	0.6698742153986651	-0.26745157155430116	-0.5388084473498288	1.0	1.0	1.0
101	1	131.5227646501014	126.91614908666483	206.5880053242929	0.0	0.0	0.0	0.0	0.0	0.0	0.7831215955858463	-0.15627870942780756	-0.5838766574101023	-0.14623809503088828	1.0	1.0	1.0
102	2	131.25343462227903	126.99014953100593	207.5482059649668	0.0	0.0	0.0	0.0	0.0	0.0	-0.018131801938180796	-0.1398960950903791	-0.1374126259917436	0.9804173042918976	1.0	1.0	1.0
103	2	130.98410459445665	127.06414997534702	208.5084066056407	0.0	0.0	0.0	0.0	0.0	0.0	-0.018131801938180796	-0.1398960950903791	-0.1374126259917436	0.9804173042918976	1.0	1.0	1.0
104	2	130.71477456663428	127.13815041968812	209.46860724631458	0.0	0.0	0.0	0.0	0.0	0.0	-0.018131801938180796	-0.1398960950903791	-0.1374126259917436	0.9804173042918976	1.0	1.0	1.0
105	2	130.4454445388119	127.21215086402921	210.42880788698847	0.0	0.0	0.0	0.0	0.0	0.0	-0.018131801938180796	-0.1398960950903791	-0.1374126259917436	0.9804173042918976	1.0	1.0	1.0
106	2	130.17611451098952	127.28615130837031	211.38900852766236	0.0	0.0	0.0	0.0	0.0	0.0	-0.018131801938180796	-0.1398960950903791	-0.1374126259917436	0.9804173042918976	1.0	1.0	1.0
107	2	129.90678448316714	127.3601517527114	212.34920916833624	0.0	0.0	0.0	0.0	0.0	0.0	-0.018131801938180796	-0.1398960950903791	-0.1374126259917436	0.9804173042918976	1.0	1.0	1.0
108	3	128.82946437187766	127.65615353007577	216.19001173103175	0.0	0.0	0.0	0.0	0.0	0.0	-0.08610035739430615	0.11174259760554416	0.7904251239168483	-0.596094324598023	1.0	1.0	3.0
109	1	130.65397961246995	127.32768848826703	206.31260038730622	0.0	0.0	0.0	0.0	0.0	0.0	-0.0834301455635458	0.8288490199420502	0.12838435197787065	-0.5381135299540153	1.0	1.0	1.0
110	1	129.74052761828287	127.45072119662498	205.9246978132109	0.0	0.0	0.0	0.0	0.0	0.0	0.22909734272705803	0.7390722257104398	-0.2589513356152124	-0.5781270262856733	1.0	1.0	1.0
111	2	129.5139605202159	128.08877369383612	206.6606029435614	0.0	0.0	0.0	0.0	0.0	0.0	-0.14053105015348324	0.33510962201571654	0.9301855947228272	0.05203195696284105	1.0	1.0	1.0
112	2	129.28739342214894	128.72682619104725	207.3965080739119	0.0	0.0	0.0	0.0	0.0	0.0	-0.14053105015348324	0.33510962201571654	0.9301855947228272	0.05203195696284105	1.0	1.0	1.0
113	2	129.06082632408197	129.3648786882584	208.13241320426238	0.0	0.0	0.0	0.0	0.0	0.0	-0.14053105015348324	0.33510962201571654	0.9301855947228272	0.05203195696284105	1.0	1.0	1.0
114	2	128.834259226015	130.00293118546952	208.86831833461287	0.0	0.0	0.0	0.0	0.0	0.0	-0.14053105015348324	0.33510962201571654	0.9301855947228272	0.05203195696284105	1.0	1.0	1.0
115	2	128.60769212794804	130.64098368268066	209.60422346496335	0.0	0.0	0.0	0.0	0.0	0.0	-0.14053105015348324	0.33510962201571654	0.9301855947228272	0.05203195696284105	1.0	1.0	1.0
116	2	128.38112502988108	131.2790361798918	210.34012859531384	0.0	0.0	0.0	0.0	0.0	0.0	-0.14053105015348324	0.33510962201571654	0.9301855947228272	0.05203195696284105	1.0	1.0	1.0
117	3	127.47485663761319	133.83124616873627	213.2837491167158	0.0	0.0	0.0	0.0	0.0	0.0	-0.336328744698969	0.13758782763737937	0.6209483921837212	0.6945326913973844	1.0	1.0	3.0
118	1	128.76732223639212	127.33284844765882	205.72727111868855	0.0	0.0	0.0	0.0	0.0	0.0	-0.4888410212658635	0.6931571795948154	0.1565900316162376	-0.5060110100603885	1.0	1.0	1.0
119	1	127.91273664528669	127.05521357913499	205.28840627929637	0.0	0.0	0.0	0.0	0.0	0.0	0.8472285136229569	-0.31882189490208057	-0.38634691045025166	0.17689689036505737	1.0	1.0	1.0
120	2	127.4145593170535	127.73213071351327	205.8302573130866	0.0	0.0	0.0	0.0	0.0	0.0	-0.3750147909927587	-0.2973859271074247	-0.031609288736575245	0.877454483013611	1.0	1.0	1.0
121	2	126.91638198882032	128.40904784789154	206.37210834687684	0.0	0.0	0.0	0.0	0.0	0.0	-0.3750147909927587	-0.2973859271074247	-0.031609288736575245	0.877454483013611	1.0	1.0	1.0
122	2	126.41820466058714	129.08596498226981	206.91395938066708	0.0	0.0	0.0	0.0	0.0	0.0	-0.3750147909927587	-0.2973859271074247	-0.031609288736575245	0.877454483013611	1.0	1.0	1.0
123	2	125.92002733235395	129.7628821166481	207.45581041445732	0.0	0.0	0.0	0.0	0.0	0.0	-0.3750147909927587	-0.2973859271074247	-0.031609288736575245	0.877454483013611	1.0	1.0	1.0
124	2	125.42185000412077	130.43979925102636	207.99766144824756	0.0	0.0	0.0	0.0	0.0	0.0	-0.3750147909927587	-0.2973859271074247	-0.031609288736575245	0.877454483013611	1.0	1.0	1.0
125	2	124.92367267588759	131.11671638540463	208.5395124820378	0.0	0.0	0.0	0.0	0.0	0.0	-0.3750147909927587	-0.2973859271074247	-0.031609288736575245	0.877454483013611	1.0	1.0	1.0
126	3	122.93096336295486	133.82438492291774	210.70691661719871	0.0	0.0	0.0	0.0	0.0	0.0	0.05489189606912711	0.47545910744334374	0.6428051575355763	-0.5981028727073447	1.0	1.0	3.0
127	1	127.14529120434256	127.00182110831659	204.64951916936693	0.0	0.0	0.0	0.0	0.0	0.0	0.7388204438726258	-0.6129749292661636	-0.2168985486944346	0.1770906755909127	1.0	1.0	1.0
128	1	126.60768875161098	127.00605143031284	203.80633134498092	0.0	0.0	0.0	0.0	0.0	0.0	0.8285790782856451	-0.5371562436579547	-0.15701767832218963	0.016288941675140747	1.0	1.0	1.0
129	2	126.98130598879816	126.11078327617355	203.56362763207017	0.0	0.0	0.0	0.0	0.0	0.0	0.31249354652217587	0.7236709472110665	-0.4273959851454913	0.4426972051257442	1.0	1.0	1.0
130	2	127.35492322598533	125.21551512203426	203.3209239191594	0.0	0.0	0.0	0.0	0.0	0.0	0.31249354652217587	0.7236709472110665	-0.4273959851454913	0.4426972051257442	1.0	1.0	1.0
131	2	127.72854046317251	124.32024696789497	203.07822020624866	0.0	0.0	0.0	0.0	0.0	0.0	0.31249354652217587	0.7236709472110665	-0.4273959851454913	0.4426972051257442	1.0	1.0	1.0
132	2	128.10215770035967	123.42497881375569	202.8355164933379	0.0	0.0	0.0	0.0	0.0	0.0	0.31249354652217587	0.7236709472110665	-0.4273959851454913	0.4426972051257442	1.0	1.0	1.0
133	2	128.47577493754684	122.5297106596164	202.59281278042715	0.0	0.0	0.0	0.0	0.0	0.0	0.31249354652217587	0.7236709472110665	-0.4273959851454913	0.4426972051257442	1.0	1.0	1.0
134	2	128.84939217473402	121.63444250547711	202.3501090675164	0.0	0.0	0.0	0.0	0.0	0.0	0.31249354652217587	0.7236709472110665	-0.4273959851454913	0.4426972051257442	1.0	1.0	1.0
135	3	130.3438611234827	118.05336988891996	201.37929421587344	0.0	0.0	0.0	0.0	0.0	0.0	-0.2907463282977795	0.7326789399435016	-0.6152487951050247	0.010819596408471795	1.0	1.0	3.0
136	1	126.32998621180671	127.14774413030484	202.8561711068341	0.0	0.0	0.0	0.0	0.0	0.0	0.8492801487416028	-0.5061323052007191	-0.07950646507064599	-0.12740502579418717	1.0	1.0	1.0
137	1	126.32390728564322	127.4446308297078	201.9012777440054	0.0	0.0	0.0	0.0	0.0	0.0	-0.20259236853565096	0.9773275500447591	-0.00557398047715296	0.061287216254809686	1.0	1.0	1.0
138	2	127.23430770431291	127.84131226359904	202.01881462201408	0.0	0.0	0.0	0.0	0.0	0.0	0.6572904230239315	0.09592111757419616	0.721217223595903	-0.19650484826832018	1.0	1.0	1.0
139	2	128.14470812298262	128.23799369749028	202.13635150002276	0.0	0.0	0.0	0.0	0.0	0.0	0.6572904230239315	0.09592111757419616	0.721217223595903	-0.19650484826832018	1.0	1.0	1.0
140	2	129.05510854165232	128.63467513138153	202.25388837803143	0.0	0.0	0.0	0.0	0.0	0.0	0.6572904230239315	0.09592111757419616	0.721217223595903	-0.19650484826832018	1.0	1.0	1.0
141	2	129.965508960322	129.03135656527277	202.3714252560401	0.0	0.0	0.0	0.0	0.0	0.0	0.6572904230239315	0.09592111757419616	0.721217223595903	-0.19650484826832018	1.0	1.0	1.0
142	2	130.8759093789917	129.42803799916402	202.4889621340488	0.0	0.0	0.0	0.0	0.0	0.0	0.6572904230239315	0.09592111757419616	0.721217223595903	-0.19650484826832018	1.0	1.0	1.0
143	2	131.7863097976614	129.82471943305526	202.60649901205747	0.0	0.0	0.0	0.0	0.0	0.0	0.6572904230239315	0.09592111757419616	0.721217223595903	-0.19650484826832018	1.0	1.0	1.0
144	3	135.4279114723402	131.4114451686202	203.07664652409218	0.0	0.0	0.0	0.0	0.0	0.0	0.3969480426334897	0.5326009880249031	0.6489275002597606	0.37102767876663445	1.0	1.0	3.0
145	1	126.44596114728004	127.45856826494438	200.90885212827465	0.0	0.0	0.0	0.0	0.0	0.0	0.9102133899113513	0.3943413560678607	-0.0027100914690751446	-0.12648768764143173	1.0	1.0	1.0
146	1	126.34126897165315	127.68669243655472	199.94086508771593	0.0	0.0	0.0	0.0	0.0	0.0	0.9181278286325699	0.2811500878037564	-0.061939096526276355	-0.27232235813441946	1.0	1.0	1.0
147	2	127.17550532455205	128.23669067747846	199.9802559811145	0.0	0.0	0.0	0.0	0.0	0.0	-0.060595997454446465	0.6903858909285562	0.3426572155006434	0.6342566352547133	1.0	1.0	1.0
148	2	128.00974167745093	128.7866889184022	200.01964687451309	0.0	0.0	0.0	0.0	0.0	0.0	-0.060595997454446465	0.6903858909285562	0.3426572155006434	0.6342566352547133	1.0	1.0	1.0
149	2	128.84397803034983	129.33668715932595	200.05903776791166	0.0	0.0	0.0	0.0	0.0	0.0	-0.060595997454446465	0.6903858909285562	0.3426572155006434	0.6342566352547133	1.0	1.0	1.0
150	2	129.67821438324873	129.8866854002497	200.09842866131024	0.0	0.0	0.0	0.0	0.0	0.0	-0.060595997454446465	0.6903858909285562	0.3426572155006434	0.6342566352547133	1.0	1.0	1.0
151	2	130.51245073614763	130.43668364117343	200.1378195547088	0.0	0.0	0.0	0.0	0.0	0.0	-0.060595997454446465	0.6903858909285562	0.3426572155006434	0.6342566352547133	1.0	1.0	1.0
152	2	131.34668708904653	130.98668188209717	200.1772104481074	0.0	0.0	0.0	0.0	0.0	0.0	-0.060595997454446465	0.6903858909285562	0.3426572155006434	0.6342566352547133	1.0	1.0	1.0
153	3	134.68363250064212	133.18667484579214	200.33477402170166	0.0	0.0	0.0	0.0	0.0	0.0	-0.5310243858239001	0.4453287043982964	-0.20619192709816556	0.6907824085041756	1.0	1.0	3.0
154	1	126.07440604545005	128.15191754242514	199.0968569245527	0.0	0.0	0.0	0.0	0.0	0.0	-0.21214836211436325	0.9689220766390103	0.11585544680419944	-0.05254138653995089	1.0	1.0	1.0
155	1	125.9234319401754	128.35413420444473	198.12922308826018	0.0	0.0	0.0	0.0	0.0	0.0	0.5361605087685457	0.8136815759924647	-0.08748040850676403	-0.20688494351924877	1.0	1.0	1.0
156	2	126.26289299813959	127.44540959017938	197.886353235141	0.0	0.0	0.0	0.0	0.0	0.0	0.6945325972854514	-0.3729066878825219	0.4623462826184139	0.4059568799630646	1.0	1.0	1.0
157	2	126.60235405610378	126.53668497591403	197.64348338202183	0.0	0.0	0.0	0.0	0.0	0.0	0.6945325972854514	-0.3729066878825219	0.4623462826184139	0.4059568799630646	1.0	1.0	1.0
158	2	126.94181511406796	125.62796036164868	197.40061352890265	0.0	0.0	0.0	0.0	0.0	0.0	0.6945325972854514	-0.3729066878825219	0.4623462826184139	0.4059568799630646	1.0	1.0	1.0
159	2	127.28127617203215	124.71923574738332	197.15774367578348	0.0	0.0	0.0	0.0	0.0	0.0	0.6945325972854514	-0.3729066878825219	0.4623462826184139	0.4059568799630646	1.0	1.0	1.0
160	2	127.62073722999634	123.81051113311797	196.9148738226643	0.0	0.0	0.0	0.0	0.0	0.0	0.6945325972854514	-0.3729066878825219	0.4623462826184139	0.4059568799630646	1.0	1.0	1.0
161	2	127.96019828796052	122.90178651885262	196.67200396954513	0.0	0.0	0.0	0.0	0.0	0.0	0.6945325972854514	-0.3729066878825219	0.4623462826184139	0.4059568799630646	1.0	1.0	1.0
162	3	129.31804251981725	119.26688806179122	195.70052455706843	0.0	0.0	0.0	0.0	0.0	0.0	0.754793557047195	0.2274238615441016	0.03987332900465615	0.6139830543870889	1.0	1.0	3.0
163	1	125.49294792572717	128.4336188842679	197.23013149171513	0.0	0.0	0.0	0.0	0.0	0.0	-0.04211605133041601	0.9690724853246836	-0.11042530176784424	-0.21663565989110695	1.0	1.0	1.0
164	1	125.08237796640077	128.20135096387017	196.34838100452907	0.0	0.0	0.0	0.0	0.0	0.0	-0.2959843268655974	0.9132787605686624	-0.20341571279873685	-0.1921906124936101	1.0	1.0	1.0
165	2	124.33146587296227	127.73890774636227	196.8198439389245	0.0	0.0	0.0	0.0	0.0	0.0	-0.5031788996698513	-0.1052593355922493	0.8069814105871977	-0.29071028561853873	1.0	1.0	1.0
166	2	123.58055377952377	127.27646452885438	197.2913068733199	0.0	0.0	0.0	0.0	0.0	0.0	-0.5031788996698513	-0.1052593355922493	0.8069814105871977	-0.29071028561853873	1.0	1.0	1.0
167	2	122.82964168608527	126.81402131134648	197.76276980771533	0.0	0.0	0.0	0.0	0.0	0.0	-0.5031788996698513	-0.1052593355922493	0.8069814105871977	-0.29071028561853873	1.0	1.0	1.0
168	2	122.07872959264677	126.35157809383858	198.23423274211075	0.0	0.0	0.0	0.0	0.0	0.0	-0.5031788996698513	-0.1052593355922493	0.8069814105871977	-0.29071028561853873	1.0	1.0	1.0